# Model for PE

     100     atoms
      99     bonds
      98     angles
      97     dihedrals

         1     atom types
         1     bond types
         1     angle types
         1     dihedral types

    0.0000   158.5000 xlo xhi
    0.0000   158.5000 ylo yhi
    0.0000   100.0000 zlo zhi

Masses

         1          14.02

Atoms

         1         1         1    5.6240    5.3279   51.6059
         2         1         1    7.4995    7.4810   50.2541
         3         1         1    8.2322    8.0236   51.2149
         4         1         1    9.6108    9.9075   51.7682
............................................................
        96         1         1  147.9484  147.5354   51.0276
        97         1         1  149.4077  149.1080   50.9198
        98         1         1  150.9509  151.0511   51.6108
        99         1         1  152.7009  152.8722   50.1044
       100         1         1  153.7197  153.9596   51.9171

Bonds

         1         1         1         2
         2         1         2         3
         3         1         3         4
         4         1         4         5
........................................
        95         1        95        96
        96         1        96        97
        97         1        97        98
        98         1        98        99
        99         1        99       100

Angles

         1         1         1         2         3
         2         1         2         3         4
         3         1         3         4         5
         4         1         4         5         6
..................................................
        95         1        95        96        97
        96         1        96        97        98
        97         1        97        98        99
        98         1        98        99       100

Dihedrals

         1         1         1         2         3         4
         2         1         2         3         4         5
         3         1         3         4         5         6
         4         1         4         5         6         7
............................................................
        94         1        94        95        96        97
        95         1        95        96        97        98
        96         1        96        97        98        99
        97         1        97        98        99       100
