# Minimum Energy <110>(111) Symmetric Tilt GB Structure for LAMMPS  

600 atoms 
2 atom types 
0.000000 6.994060 xlo xhi  
-123.994003 123.994003 ylo yhi  
0.000000 4.038020 zlo zhi  

Atoms 

1 1 5.479150 -110.221001 2.019010  
2 1 5.478960 -115.167999 2.019010  
3 1 4.313340 -113.516998 4.038020  
4 1 5.479050 -112.694000 2.019010  
..................................
596 1 1.981210 119.306999 4.038020  
597 1 1.981310 121.836998 4.038020  
598 1 3.146950 120.946999 2.019010  
599 1 3.147160 123.581001 2.019010  
600 1 4.312650 122.422997 4.038020 
